# vtk DataFile Version 2.0
test
ASCII
DATASET POLYDATA
POINTS 4 double
2.06342306 82.49619461 14.00000000
12.06342306 82.49619461 14.00000000
2.06342306 92.49619461 14.00000000
12.06342306 92.49619461 14.00000000
POLYGONS 2 8
3 3 2 0
3 1 3 0
CELL_DATA 2
NORMALS cell_normals float
0.00000000 0.00000000 1.00000000
0.00000000 0.00000000 1.00000000
FIELD PrimaryData 7
cos 1 2 double
0.97653500
0.97653500
tot 1 2 double
76695.68484055
76695.68484055
efficiency 1 2 double
0.84779998
0.84779998
shade 1 2 double
2.24771000
2.24771000
hst_abs 1 2 double
7489.37728858
7489.37728858
spillage 1 2 double
-1.00000000
-1.00000000
block 1 2 double
2383.79559719
2383.79559719
