# vtk DataFile Version 2.0
test
ASCII
DATASET POLYDATA
POINTS 4 double
2.06342306 82.49619461 14.00000000
12.06342306 82.49619461 14.00000000
2.06342306 92.49619461 14.00000000
12.06342306 92.49619461 14.00000000
POLYGONS 2 8
3 3 2 0
3 1 3 0
CELL_DATA 2
NORMALS cell_normals float
0.00000000 0.00000000 1.00000000
0.00000000 0.00000000 1.00000000
FIELD PrimaryData 7
cos 1 2 double
0.99333800
0.99333800
tot 1 2 double
82082.40519599
82082.40519599
efficiency 1 2 double
0.86249787
0.86249787
shade 1 2 double
2.44653000
2.44653000
hst_abs 1 2 double
8153.31256826
8153.31256826
spillage 1 2 double
-1.00000000
-1.00000000
block 1 2 double
2585.91311432
2585.91311432
