# vtk DataFile Version 2.0
test
ASCII
DATASET POLYDATA
POINTS 4 double
2.06342306 82.49619461 14.00000000
12.06342306 82.49619461 14.00000000
2.06342306 92.49619461 14.00000000
12.06342306 92.49619461 14.00000000
POLYGONS 2 8
3 3 2 0
3 1 3 0
CELL_DATA 2
NORMALS cell_normals float
0.00000000 0.00000000 1.00000000
0.00000000 0.00000000 1.00000000
FIELD PrimaryData 7
cos 1 2 double
0.94952900
0.94952900
tot 1 2 double
68250.41075811
68250.41075811
efficiency 1 2 double
0.82300604
0.82300604
shade 1 2 double
0.64830300
0.64830300
hst_abs 1 2 double
6480.50959737
6480.50959737
spillage 1 2 double
-1.00000000
-1.00000000
block 1 2 double
2156.08637637
2156.08637637
