# vtk DataFile Version 2.0
test
ASCII
DATASET POLYDATA
POINTS 4 double
2.06342306 82.49619461 14.00000000
12.06342306 82.49619461 14.00000000
2.06342306 92.49619461 14.00000000
12.06342306 92.49619461 14.00000000
POLYGONS 2 8
3 3 2 0
3 1 3 0
CELL_DATA 2
NORMALS cell_normals float
0.00000000 0.00000000 1.00000000
0.00000000 0.00000000 1.00000000
FIELD PrimaryData 7
cos 1 2 double
0.99570700
0.99570700
tot 1 2 double
87476.92761076
87476.92761076
efficiency 1 2 double
0.86507611
0.86507611
shade 1 2 double
0.87105500
0.87105500
hst_abs 1 2 double
8710.05181055
8710.05181055
spillage 1 2 double
-1.00000000
-1.00000000
block 1 2 double
2718.26629498
2718.26629498
