# vtk DataFile Version 2.0
test
ASCII
DATASET POLYDATA
POINTS 4 double
2.06342306 82.49619461 14.00000000
12.06342306 82.49619461 14.00000000
2.06342306 92.49619461 14.00000000
12.06342306 92.49619461 14.00000000
POLYGONS 2 8
3 3 2 0
3 1 3 0
CELL_DATA 2
NORMALS cell_normals float
0.00000000 0.00000000 1.00000000
0.00000000 0.00000000 1.00000000
FIELD PrimaryData 7
cos 1 2 double
0.71175900
0.71175900
tot 1 2 double
29797.46670313
29797.46670313
efficiency 1 2 double
0.59453041
0.59453041
shade 1 2 double
15.69980000
15.69980000
hst_abs 1 2 double
2119.29153032
2119.29153032
spillage 1 2 double
-1.00000000
-1.00000000
block 1 2 double
1360.12377284
1360.12377284
