# vtk DataFile Version 2.0
test
ASCII
DATASET POLYDATA
POINTS 4 double
2.06342306 82.49619461 14.00000000
12.06342306 82.49619461 14.00000000
2.06342306 92.49619461 14.00000000
12.06342306 92.49619461 14.00000000
POLYGONS 2 8
3 3 2 0
3 1 3 0
CELL_DATA 2
NORMALS cell_normals float
0.00000000 0.00000000 1.00000000
0.00000000 0.00000000 1.00000000
FIELD PrimaryData 7
cos 1 2 double
0.99975100
0.99975100
tot 1 2 double
85503.85983970
85503.85983970
efficiency 1 2 double
0.80994004
0.80994004
shade 1 2 double
5738.17000000
5738.17000000
hst_abs 1 2 double
7974.43993786
7974.43993786
spillage 1 2 double
-1.00000000
-1.00000000
block 1 2 double
2518.95944074
2518.95944074
