# vtk DataFile Version 2.0
test
ASCII
DATASET POLYDATA
POINTS 4 double
2.06342306 82.49619461 14.00000000
12.06342306 82.49619461 14.00000000
2.06342306 92.49619461 14.00000000
12.06342306 92.49619461 14.00000000
POLYGONS 2 8
3 3 2 0
3 1 3 0
CELL_DATA 2
NORMALS cell_normals float
0.00000000 0.00000000 1.00000000
0.00000000 0.00000000 1.00000000
FIELD PrimaryData 7
cos 1 2 double
0.72776000
0.72776000
tot 1 2 double
47941.23398168
47941.23398168
efficiency 1 2 double
0.61045571
0.61045571
shade 1 2 double
18.84490000
18.84490000
hst_abs 1 2 double
3487.08675425
3487.08675425
spillage 1 2 double
-1.00000000
-1.00000000
block 1 2 double
2119.78078826
2119.78078826
